------------------------------------------------------------
          Invoking FHI-aims ...

          When using FHI-aims, please cite the following reference:

            Volker Blum, Ralf Gehrke, Felix Hanke, Paula Havu,
            Ville Havu, Xinguo Ren, Karsten Reuter, and Matthias Scheffler,
            'Ab Initio Molecular Simulations with Numeric Atom-Centered Orbitals',
            Computer Physics Communications 180, 2175-2196 (2009)

          In addition, many other developments in FHI-aims are likely important for
          your particular application. If so, please cite them. A partial list of references
          is written at the end of this file. Thank you for giving credit to the authors
          of these developments.

          For general information about FHI-aims please find us at

            https://fhi-aims.org

          Online tutorials can be found at

            https://fhi-aims-club.gitlab.io/tutorials/tutorials-overview/

          For any questions about FHI-aims, please visit our slack channel at

            https://fhi-aims.slack.com

          and our main development and support site at

            https://aims-git.rz-berlin.mpg.de .

          The latter site, in particular, has a wiki to collect information, as well
          as an issue tracker to log discussions, suggest improvements, and report issues
          or bugs. https://aims-git.rz-berlin.mpg.de is also the main development site
          of the project and all new and updated code versions can be obtained there.
          Please send an email to aims-coordinators@fhi-berlin.mpg.de and we will add
          you to these sites. They are for you and everyone is welcome there.

------------------------------------------------------------



  Date     :  20250218, Time     :  132635.554
  Time zero on CPU 1             :   0.160172000000000E+00  s.
  Internal wall clock time zero  :           509117195.554  s.

  FHI-aims created a unique identifier for this run for later identification
  aims_uuid : DEF5452C-21FC-4A6B-A75B-0EC6D6E7CEA7

  Build configuration of the current instance of FHI-aims
  -------------------------------------------------------
  FHI-aims version      : 240507
  Commit number         : f9a188a83
  CMake host system     : Linux-6.9.1-zen1-1-zen
  CMake version         : 3.29.3
  Fortran compiler      : /usr/bin/mpifort (GNU) version 14.1.1
  Fortran compiler flags: -fallow-argument-mismatch -march=native -ffree-line-length-none -fallow-argument-mismatch -march=native -ffree-line-length-none
  C compiler            : /usr/bin/gcc (GNU) version 14.1.1
  C compiler flags      :  -march=native
  C++ compiler          : /usr/bin/g++ (GNU) version 14.1.1
  C++ compiler flags    :  -march=native
  HIP compiler          :
  HIP compiler flags    :
  HIP GPU arch          :
  Using MPI
  Using ScaLAPACK
  Using LibXC
  Using i-PI
  Using RLSY
  Linking against: /usr/lib/libscalapack.so
                   /usr/lib/libopenblas.so

  Using        4 parallel tasks.
  Task        0 on host arch reporting.
  Task        1 on host arch reporting.
  Task        2 on host arch reporting.
  Task        3 on host arch reporting.

  Memory overcommitment is allowed on your operating system.

  Obtaining array dimensions for all initial allocations:
  
  -----------------------------------------------------------------------
  Parsing control.in (first pass over file, find array dimensions only).
  The contents of control.in will be repeated verbatim below
  unless switched off by setting 'verbatim_writeout .false.' .
  in the first line of control.in .
  -----------------------------------------------------------------------
  
  xc                           pbe
  k_grid                       8 8 8
  spin                         collinear
  default_initial_moment       1
  relax_geometry               bfgs 5e-3
  relax_unit_cell              full
  ################################################################################
  #
  #  FHI-aims code project
  #  VB, Fritz-Haber Institut, 2009
  #
  #  Suggested "light" defaults for Si atom (to be pasted into control.in file)
  #  Be sure to double-check any results obtained with these settings for post-processing,
  #  e.g., with the "tight" defaults and larger basis sets.
  #
  #  2020/09/08 Added f function to "light" after reinspection of Delta test outcomes.
  #             This was done for all of Al-Cl and is a tricky decision since it makes
  #             "light" calculations measurably more expensive for these elements.
  #             Nevertheless, outcomes for P, S, Cl (and to some extent, Si) appear
  #             to justify this choice.
  #
  ################################################################################
    species        Si
  #     global species definitions
      nucleus             14
      mass                28.0855
  #
      l_hartree           4
  #
      cut_pot             3.5          1.5  1.0
      basis_dep_cutoff    1e-4
  #
      radial_base         42 5.0
      radial_multiplier   1
      angular_grids       specified
        division   0.5866   50
        division   0.9616  110
        division   1.2249  194
        division   1.3795  302
  #      division   1.4810  434
  #      division   1.5529  590
  #      division   1.6284  770
  #      division   1.7077  974
  #      division   2.4068 1202
  #      outer_grid   974
        outer_grid 302
  ################################################################################
  #
  #  Definition of "minimal" basis
  #
  ################################################################################
  #     valence basis states
      valence      3  s   2.
      valence      3  p   2.
  #     ion occupancy
      ion_occ      3  s   1.
      ion_occ      3  p   1.
  ################################################################################
  #
  #  Suggested additional basis functions. For production calculations,
  #  uncomment them one after another (the most important basis functions are
  #  listed first).
  #
  #  Constructed for dimers: 1.75 A, 2.0 A, 2.25 A, 2.75 A, 3.75 A
  #
  ################################################################################
  #  "First tier" - improvements: -571.96 meV to -37.03 meV
       hydro 3 d 4.2
       hydro 2 p 1.4
       hydro 4 f 6.2
       ionic 3 s auto
  #  "Second tier" - improvements: -16.76 meV to -3.03 meV
  #     hydro 3 d 9
  #     hydro 5 g 9.4
  #     hydro 4 p 4
  #     hydro 1 s 0.65
  #  "Third tier" - improvements: -3.89 meV to -0.60 meV
  #     ionic 3 d auto
  #     hydro 3 s 2.6
  #     hydro 4 f 8.4
  #     hydro 3 d 3.4
  #     hydro 3 p 7.8
  #  "Fourth tier" - improvements: -0.33 meV to -0.11 meV
  #     hydro 2 p 1.6
  #     hydro 5 g 10.8
  #     hydro 5 f 11.2
  #     hydro 3 d 1
  #     hydro 4 s 4.5
  #  Further basis functions that fell out of the optimization - noise
  #  level... < -0.08 meV
  #     hydro 4 d 6.6
  #     hydro 5 g 16.4
  #     hydro 4 d 9
  
  -----------------------------------------------------------------------
  Completed first pass over input file control.in .
  -----------------------------------------------------------------------
  
  
  -----------------------------------------------------------------------
  Parsing geometry.in (first pass over file, find array dimensions only).
  The contents of geometry.in will be repeated verbatim below
  unless switched off by setting 'verbatim_writeout .false.' .
  in the first line of geometry.in .
  -----------------------------------------------------------------------
  
  lattice_vector 0.00000 2.71500 2.71500
  lattice_vector 2.71500 0.00000 2.71500
  lattice_vector 2.71500 2.71500 0.00000
  
  atom_frac 0.00000 0.00000 0.00000 Si
  atom_frac 0.25000 0.25000 0.25000 Si
  
  -----------------------------------------------------------------------
  Completed first pass over input file geometry.in .
  -----------------------------------------------------------------------
  

  Basic array size parameters:
  | Number of species                 :        1
  | Number of atoms                   :        2
  | Number of lattice vectors         :        3
  | Max. basis fn. angular momentum   :        3
  | Max. atomic/ionic basis occupied n:        3
  | Max. number of basis fn. types    :        3
  | Max. radial fns per species/type  :        5
  | Max. logarithmic grid size        :     1346
  | Max. radial integration grid size :       42
  | Max. angular integration grid size:      302
  | Max. angular grid division number :        8
  | Radial grid for Hartree potential :     1346
  | Number of spin channels           :        2

------------------------------------------------------------
          Reading file control.in.
------------------------------------------------------------
  XC: Using PBE gradient-corrected functionals.
  Found k-point grid:         8         8         8
  Spin treatment: Spin density functional theory - collinear spins.
  Initial spin moment per atom:   1.0000
  Geometry relaxation: Modified BFGS - TRM (trust radius method) for lattice optimization.
  Convergence accuracy for geometry relaxation: Maximum force <   0.500000E-02 eV/A.

  Reading configuration options for species Si                  .
  | Found nuclear charge :  14.0000
  | Found atomic mass :    28.085500000000000      amu
  | Found l_max for Hartree potential  :   4
  | Found cutoff potl. onset [A], width [A], scale factor :    3.50000    1.50000    1.00000
  | Threshold for basis-dependent cutoff potential is   0.100000E-03
  | Found data for basic radial integration grid :    42 points, outermost radius =    5.000 A
  | Found multiplier for basic radial grid :   1
  | Found angular grid specification: user-specified.
  | Specified grid contains     5 separate shells.
  | Check grid settings after all constraints further below.
  | Found free-atom valence shell :  3 s   2.000
  | Found free-atom valence shell :  3 p   2.000
  | Found free-ion valence shell :  3 s   1.000
  | Found free-ion valence shell :  3 p   1.000
  | Found hydrogenic basis function :  3 d   4.200
  | Found hydrogenic basis function :  2 p   1.400
  | Found hydrogenic basis function :  4 f   6.200
  | Found ionic basis function :  3 s , default cutoff radius.
  Species Si                  : Missing cutoff potential type.
  Defaulting to exp(1/x)/(1-x)^2 type cutoff potential.
  Species Si: No 'logarithmic' tag. Using default grid for free atom:
  | Default logarithmic grid data [bohr] : 0.1000E-03 0.1000E+03 0.1012E+01
  | Will include ionic basis functions of  2.0-fold positive Si                   ion.
  Species Si: On-site basis accuracy parameter (for Gram-Schmidt orthonormalisation) not specified.
  Using default value basis_acc =  0.1000000E-03.
  Species Si                  : Using default innermost maximum threshold i_radial=  2 for radial functions.
  Species Si                  : Default cutoff onset for free atom density etc. : 0.35000000E+01 AA.
  Species Si                  : Basic radial grid will be enhanced according to radial_multiplier =   1, to contain    42 grid points.

  Finished reading input file 'control.in'.

------------------------------------------------------------


------------------------------------------------------------
          Reading geometry description geometry.in.
------------------------------------------------------------
  | The smallest distance between any two atoms is         2.35125897 AA.
  | The first atom of this pair is atom number                      1 .
  | The second atom of this pair is atom number                     2 .
  | Wigner-Seitz cell of the first atom image           0     0     0 .
  | (The Wigner-Seitz cell of the second atom is 0 0 0  by definition.)

  Symmetry information by spglib:
  | Precision set to  0.1E-04
  | Number of Operations  : 48
  | Space group           : 227
  | International         : Fd-3m
  | Schoenflies           : Oh^7
  Input structure read successfully.
  The structure contains        2 atoms,  and a total of         28.000 electrons.

  Input geometry:
  | Unit cell:
  |        0.00000000        2.71500000        2.71500000
  |        2.71500000        0.00000000        2.71500000
  |        2.71500000        2.71500000        0.00000000
  | Atomic structure:
  |       Atom                x [A]            y [A]            z [A]
  |    1: Species Si            0.00000000        0.00000000        0.00000000
  |    2: Species Si            1.35750000        1.35750000        1.35750000

  Lattice parameters for 3D lattice (in Angstroms) :     3.839590    3.839590    3.839590
  Angle(s) between unit vectors (in degrees)       :    60.000000   60.000000   60.000000


  Quantities derived from the lattice vectors (in Angstrom^-1):
  | Reciprocal lattice vector 1: -1.157124  1.157124  1.157124
  | Reciprocal lattice vector 2:  1.157124 -1.157124  1.157124
  | Reciprocal lattice vector 3:  1.157124  1.157124 -1.157124
  | Unit cell volume                               :   0.400258E+02  Angstrom^3

  Fractional coordinates:
                         L1                L2                L3
       atom_frac         0.00000000        0.00000000        0.00000000  Si
       atom_frac         0.25000000        0.25000000        0.25000000  Si

  Initial moments and charges:
  |  Atom   Moment         Charge        Species
  |     1   0.100000E+01   0.000000E+00   Si
  |     2   0.100000E+01   0.000000E+00   Si

  Slab Identifier: This seems to be a bulk system.

  Finished reading input file 'geometry.in'.



  Consistency checks for stacksize environment parameter are next.

  | Maximum stacksize for task 0: unlimited
  | Maximum stacksize for task 1: unlimited
  | Maximum stacksize for task 2: unlimited
  | Maximum stacksize for task 3: unlimited
  | Current stacksize for task 0: unlimited
  | Current stacksize for task 1: unlimited
  | Current stacksize for task 2: unlimited
  | Current stacksize for task 3: unlimited

  Consistency checks for the contents of control.in are next.

  MPI_IN_PLACE appears to work with this MPI implementation.
  | Keeping use_mpi_in_place .true. (see manual).
  Target number of points in a grid batch is not set. Defaulting to  100
  Method for grid partitioning is not set. Defaulting to parallel hash+maxmin partitioning.
  Batch size limit is not set. Defaulting to    200
  By default, will store active basis functions for each batch.
  If in need of memory, prune_basis_once .false. can be used to disable this option.
  communication_type for Hartree potential was not specified.
  Defaulting to calc_hartree .
  Defaulting to Pulay charge density mixer.
  Pulay mixer: Number of relevant iterations not set.
  Defaulting to    8 iterations.
  Pulay mixer: Number of initial linear mixing iterations not set.
  Defaulting to    0 iterations.
  Work space size for distributed Hartree potential not set.
  Defaulting to   0.200000E+03 MB.
  Mixing parameter for charge density mixing has not been set.
  Using default: charge_mix_param =     0.0500.
  The mixing parameter will be adjusted in iteration number     2 of the first full s.c.f. cycle only.
  Mixing parameter for spin density mixing has not been set.
  Using charge_mix_param as default:     0.0500.
  Algorithm-dependent basis array size parameters:
  | n_max_pulay                         :        8
  Maximum number of self-consistency iterations not provided.
  Presetting  1000 iterations.
  Presetting      1001 iterations before the initial mixing cycle
  is restarted anyway using the sc_init_iter criterion / keyword.
  Presetting a factor      1.000 between actual scf density residual
  and density convergence criterion sc_accuracy_rho below which sc_init_iter
  takes no effect.
 * No s.c.f. convergence criteria (sc_accuracy_*) were provided in control.in.
 * The run will proceed with a reasonable default guess, but please check whether.
 * the s.c.f. cycles seem to take too much or too little time.
  No maximum number of relaxation steps, defaulting to     1000
  Default initial Hessian is Lindh matrix (thres = 15.00) plus  0.200000E+01 eV/A^2 times unity.
  No maximum energy tolerance for TRM/BFGS moves, defaulting to   0.150000E-02
  Maximum energy tolerance by which TRM/BFGS trajectory may increase over multiple steps:   0.300000E-02
  No harmonic length scale. Defaulting to   0.250000E-01 A.
  No trust radius initializer. Defaulting to   0.200000E+00 A.
  Unit cell relaxation: Unit cell will be relaxed fully.
  Unit cell relaxation: Analytical stress will be used.
  Analytical stress will be computed.
  Analytical stress calculation: Only the upper triangle is calculated.
                                 Final output is symmetrized.
  Analytical stress calculation: scf convergence accuracy of stress not set.
                                 Analytical stress self-consistency will not be checked explicitly.
                                 Be sure to set other criteria like sc_accuracy_rho tight enough.
  Forces evaluation will include force correction term due to incomplete self-consistency (default).
 * Notice: The s.c.f. convergence criterion sc_accuracy_rho was not provided.
 * We used to stop in this case, and ask the user to provide reasonable
 * scf convergence criteria. However, this led some users to employ criteria
 * that led to extremely long run times, e.g., for simple relaxation.
 * We now preset a default value for sc_accuracy_rho if it is not set.
 * You may still wish to check if this setting is too tight or too loose for your needs.
 * Based on n_atoms and forces and force-correction status, FHI-aims chose sc_accuracy_rho =  0.100000E-05 .
  Force calculation: scf convergence accuracy of forces not set.
  Defaulting to 'sc_accuracy_forces not_checked'.
  Handling of forces: Unphysical translation and rotation will be removed from forces.
  No accuracy limit for integral partition fn. given. Defaulting to  0.1000E-14.
  No threshold value for u(r) in integrations given. Defaulting to  0.1000E-05.
  No occupation type (smearing scheme) given. Defaulting to Gaussian broadening, width =  0.1000E-01 eV.
  The width will be adjusted in iteration number     2 of the first full s.c.f. cycle only.
  S.C.F. convergence parameters will be adjusted in iteration number     2 of the first full s.c.f. cycle only.
  No accuracy for occupation numbers given. Defaulting to  0.1000E-12.
  No threshold value for occupation numbers given. Defaulting to  0.0000E+00.
  No accuracy for fermi level given. Defaulting to  0.1000E-19.
  Maximum # of iterations to find E_F not set. Defaulting to  200.
  Preferred method for the eigenvalue solver ('KS_method') not specified in 'control.in'.
  Defaulting to serial version, LAPACK (via ELSI), since more k-points than CPUs available.
  Will not use alltoall communication since running on < 1024 CPUs.
  Threshold for basis singularities not set.
  Default threshold for basis singularities:  0.1000E-04
  partition_type (choice of integration weights) for integrals was not specified.
  | Using a version of the partition function of Stratmann and coworkers ('stratmann_sparse').
  | At each grid point, the set of atoms used to build the partition table is smoothly restricted to
  | only those atoms whose free-atom density would be non-zero at that grid point.
  Partitioning for Hartree potential was not defined. Using partition_type for integrals.
  | Adjusted default value of keyword multip_moments_threshold to:       0.10000000E-11
  | This value may affect high angular momentum components of the Hartree potential in periodic systems.
  No q(lm)/r^(l+1) cutoff set for long-range Hartree potential.
  | Using default value of  0.100000E-09 .
  | Verify using the multipole_threshold keyword.
  Defaulting to new monopole extrapolation.
  Density update method: automatic selection selected.
  Using density matrix based charge density update.
  Using density matrix based charge density update.
  Using packed matrix style: index .
  Geometry relaxation: A file "geometry.in.next_step" is written out by default after each step.
  | This file contains the geometry of the current relaxation step as well as
  | the current Hessian matrix needed to restart the relaxation algorithm.
  | If you do not want part or all of this information, use the keywords
  | "write_restart_geometry" or "hessian_to_restart_geometry" to switch the output off.
  Defaulting to use time-reversal symmetry for k-point grid.
  Charge integration errors on the 3D integration grid will be compensated
  by explicit normalization and distribution of residual charges.
  Use the "compensate_multipole_errors" flag to change this behaviour.
  Set 'collect_eigenvectors' to be '.true.' for all serial calculations. This is mandatory.
  Set 'collect_eigenvectors' to be '.true.' for KS_method lapack_fast and serial.
  Found potential conflicts with setting 'use_local_index' for this calculation. Will not set it.

  Consistency checks for the contents of geometry.in are next.


  Range separation radius for Ewald summation (hartree_convergence_parameter):      3.88818726 bohr.
 * Warning! You did not set the 'relativistic' flag in input file 'control.in'.
 * FHI-aims will default to 'relativistic atomic_zora scalar'.
 * You must ensure that this is really what you want!!
 * For example, DO NOT compute total-energy differences between results from
 * different settings of the 'relativistic' flag.
  Number of empty states per atom not set in control.in - providing a guess from actual geometry.
  | Total number of empty states used during s.c.f. cycle:        6
  If you use a very high smearing, use empty_states (per atom!) in control.in to increase this value.

  Structure-dependent array size parameters: 
  | Number of distinct atom types in initial rho :        1
  | Maximum number of distinct radial functions  :        9
  | Maximum number of basis functions            :       50
  | Number of Kohn-Sham states (occupied + empty):       20
------------------------------------------------------------
  After read_input_data [GB]:     47.39

  Performing system and environment tests:
  *** Environment variable OMP_NUM_THREADS is not set
  *** For performance reasons you might want to set it to 1
  | Checking for ScaLAPACK...
  | Testing pdtran()...
  | All pdtran() tests passed.
  After prepare_system [GB]:     47.38

------------------------------------------------------------
          Preparing all fixed parts of the calculation.
------------------------------------------------------------
  Determining machine precision:
     2.2250738585072014E-308
  Setting up grids for atomic and cluster calculations.

  Creating wave function, potential, and density for free atoms.
  Runtime choices for atomic solver:
  | atomic solver xc        : PBE
  | compute density gradient: 1
  | compute kinetic density : F

  Species: Si

  List of occupied orbitals and eigenvalues:
    n    l              occ      energy [Ha]    energy [eV]
    1    0           2.0000       -65.767597     -1789.6274
    2    0           2.0000        -5.115610      -139.2028
    3    0           2.0000        -0.388877       -10.5819
    2    1           6.0000        -3.500197       -95.2452
    3    1           2.0000        -0.140803        -3.8315

  Spin-polarized or charged system:
  Charge density initialized according to selected moments and charges.

  Creating spin-polarized density from free atoms.

  Species: Si
  Charge:   0.000000
  Moment:   1.000000

  List of occupied orbitals and eigenvalues:
    n    l      energy [Ha]    energy [eV]    occupation
  Spin-up
    1    0       -65.766841     -1789.6068     1.00000000
    2    0        -5.115122      -139.1896     1.00000000
    3    0        -0.402002       -10.9390     1.00000000
    2    1        -3.500188       -95.2450     3.00000000
    3    1        -0.153523        -4.1776     1.50000000
  Spin-down
    1    0       -65.764147     -1789.5335     1.00000000
    2    0        -5.112148      -139.1086     1.00000000
    3    0        -0.371452       -10.1077     1.00000000
    2    1        -3.496251       -95.1378     3.00000000
    3    1        -0.123764        -3.3678     0.50000000


  Adding cutoff potential to free-atom effective potential.
  Creating fixed part of basis set: Ionic, confined, hydrogenic.

  Si                   ion:

  List of free ionic orbitals and eigenvalues:
    n    l      energy [Ha]    energy [eV]
    1    0       -66.641157     -1813.3982
    2    0        -5.964274      -162.2962
    3    0        -1.073878       -29.2217
    2    1        -4.350005      -118.3697
    3    1        -0.776571       -21.1316


  List of ionic basis orbitals and eigenvalues:
    n    l      energy [Ha]    energy [eV]    outer radius [A]
    3    0        -1.073857       -29.2211       4.214062


  Si                   hydrogenic:

  List of hydrogenic basis orbitals: 
    n    l      effective z      eigenvalue [eV]  inner max. [A]     outer max. [A]     outer radius [A]   
    3    2         4.200000       -26.6624           1.139231           1.139231           4.534782
    2    1         1.400000        -6.4613           1.472672           1.472672           4.590560
    4    3         6.200000       -32.6778           1.368518           1.368518           4.534782

  Creating atomic-like basis functions for current effective potential.

  Species Si                  :

  List of atomic basis orbitals and eigenvalues:
    n    l      energy [Ha]    energy [eV]    outer radius [A]
    1    0       -65.767597     -1789.6274       0.789468
    2    0        -5.115610      -139.2028       2.815114
    3    0        -0.388877       -10.5819       4.534782
    2    1        -3.500197       -95.2452       3.259919
    3    1        -0.140803        -3.8315       4.590560

  Assembling full basis from fixed parts.
  | Species Si :   atomic orbital   1 s accepted.
  | Species Si :   atomic orbital   2 s accepted.
  | Species Si :    ionic orbital   3 s accepted.
  | Species Si :   atomic orbital   3 s accepted.
  | Species Si :   atomic orbital   2 p accepted.
  | Species Si :   atomic orbital   3 p accepted.
  | Species Si :    hydro orbital   2 p accepted.
  | Species Si :    hydro orbital   3 d accepted.
  | Species Si :    hydro orbital   4 f accepted.

  Basis size parameters after reduction:
  | Total number of radial functions:        9
  | Total number of basis functions :       50

  Per-task memory consumption for arrays in subroutine allocate_ext:
  |           3.102808MB.
  Testing on-site integration grid accuracy.
  |  Species  Function  <phi|h_atom|phi> (log., in eV)  <phi|h_atom|phi> (rad., in eV)
           1        1              -1789.6273740966              -1789.6266345813
           1        2               -139.2028173376               -139.2028132357
           1        3                -10.2237226190                -10.2235219160
           1        4                  5.6355365073                  5.5558633521 ***
           1        5                -95.2452114632                -95.2452114537
           1        6                 -3.8413965043                 -3.8571292824
           1        7                  6.4035522332                  6.2277973139 ***
           1        8                  6.3860095444                  6.3839142324
           1        9                 19.3722793793                 19.3677446767
 * Note: Onsite integrals marked "***" above are less accurate than
 * onsite_accuracy_threshold =    0.03000 eV. Usually, this is harmless.
 * When in doubt, tighten the "radial" and/or "radial_multiplier" flags to check.

  Preparing densities etc. for the partition functions (integrals / Hartree potential).

  Preparations completed.
  max(cpu_time)          :      0.267 s.
  Wall clock time (cpu1) :      0.320 s.
------------------------------------------------------------
  After prepare_scf [GB]:     47.26

  Initializing index lists of integration centers etc. from given atomic structure:
  Mapping all atomic coordinates to central unit cell.

  Initializing the k-points
  Using symmetry for reducing the k-points
  | k-points reduced from:      512 to      260
  | Number of k-points                             :       260
  The eigenvectors in the calculations are COMPLEX.
  | K-points in task   0:        65
  | K-points in task   1:        65
  | K-points in task   2:        65
  | K-points in task   3:        65
  | Number of basis functions in the Hamiltonian integrals :      2179
  | Number of basis functions in a single unit cell        :        50
  | Number of centers in hartree potential         :       732
  | Number of centers in hartree multipole         :       318
  | Number of centers in electron density summation:       198
  | Number of centers in basis integrals           :       228
  | Number of centers in integrals                 :       101
  | Number of centers in hamiltonian               :       198
  | Consuming        455 KiB for k_phase.
  | Number of super-cells (origin) [n_cells]                     :        2197
  | Number of super-cells (after PM_index) [n_cells]             :         112
  | Number of super-cells in hamiltonian [n_cells_in_hamiltonian]:         112
  | Size of matrix packed + index [n_hamiltonian_matrix_size] :       89403
  After initialize_bc_dependent_lists [GB]:     47.27

------------------------------------------------------------
          Begin self-consistency loop: Initialization.

          Date     :  20250218, Time     :  132636.013
------------------------------------------------------------

  Initializing relaxation algorithms.
  Finished initialization of distributed Hessian storage.
  | Global dimension:        15
  | BLACS block size:         4
  | Number of workers:        4

  Available memory per node after initialize_hartree_non_periodic_ewald [GB]:     47.27
  | Estimated reciprocal-space cutoff momentum G_max:         2.40094914 bohr^-1 .
  | Reciprocal lattice points for long-range Hartree potential:      58
  Available memory per node after initialize_recip_hartree_potential [GB]:     47.27
  Available memory per node after initialize_scalapack [GB]:     47.27
  Available memory per node after aims_elsi_init_scf [GB]:     47.27
  Available memory per node after initialize_fixed_grids [GB]:     47.27
  Partitioning the integration grid into batches with parallel hashing+maxmin method.
  | Number of batches:      139
  | Maximal batch size:     107
  | Minimal batch size:      50
  | Average batch size:      80.633
  | Standard deviation of batch sizes:      14.754

  Integration load balanced across     4 MPI tasks.
  Work distribution over tasks is as follows:
  Task     0 has       2753 integration points.
  Task     1 has       2811 integration points.
  Task     2 has       2834 integration points.
  Task     3 has       2810 integration points.
  Available memory per node after partition_grid [GB]:     47.27
  Initializing partition tables, free-atom densities, potentials, etc. across the integration grid (initialize_grid_storage).
  | initialize_grid_storage: Actual outermost partition radius vs. multipole_radius_free
  | (-- VB: in principle, multipole_radius_free should be larger, hence this output)
  | Species        1: Confinement radius =              4.999999999999999 AA, multipole_radius_free =              5.000694715736543 AA.
  | Species        1: outer_partition_radius set to              5.000694715736543 AA .
  | The sparse table of interatomic distances needs        255.65 kbyte instead of       415.87 kbyte of memory.
  | Net number of integration points:    11208
  | of which are non-zero points    :     9820
  | Numerical average free-atom electrostatic potential    :    -13.13394093 eV
  Available memory per node after initialize_grid_storage_p1 [GB]:     47.27
  Renormalizing the initial density to the exact electron count on the 3D integration grid.
  | Initial density: Formal number of electrons (from input files) :      28.0000000000
  | Integrated number of electrons on 3D grid     :      28.0049168115
  | Charge integration error                      :       0.0049168115
  | Normalization factor for density and gradient :       0.9998244304
  Renormalizing the free-atom superposition density to the exact electron count on the 3D integration grid.
  | Formal number of electrons (from input files) :      28.0000000000
  | Integrated number of electrons on 3D grid     :      28.0049838157
  | Charge integration error                      :       0.0049838157
  | Normalization factor for density and gradient :       0.9998220383
  Obtaining max. number of non-zero basis functions in each batch (get_n_compute_maxes).
  | Maximal number of non-zero basis functions:      704 in task     0
  | Maximal number of non-zero basis functions:      694 in task     1
  | Maximal number of non-zero basis functions:      686 in task     2
  | Maximal number of non-zero basis functions:      676 in task     3
  Available memory per node after get_n_compute_maxes_p1 [GB]:     47.27
  Initialize hartree_potential_storage
  Max. number of atoms included in rho_multipole:            2

  Evaluating partitioned Hartree potential by multipole expansion.
  | Original multipole sum: apparent total charge =  -0.249592E-13
  | Sum of charges compensated after spline to logarithmic grids =  -0.272947E-05
  | Analytical far-field extrapolation by fixed multipoles:
  | Hartree multipole sum: apparent total charge =  -0.000000E+00
  Summing up the Hartree potential.
  | Ewald reciprocal-space coefficients, myid =     0 : cpu      0.000 s, wall      0.000 s.
  | Ewald reciprocal-space coefficients, myid =     1 : cpu      0.000 s, wall      0.000 s.
  | Ewald reciprocal-space coefficients, myid =     2 : cpu      0.000 s, wall      0.000 s.
  | Ewald reciprocal-space coefficients, myid =     3 : cpu      0.000 s, wall      0.000 s.
  Time summed over all CPUs for potential: real work        0.074 s, elapsed        0.076 s
  | RMS charge density error from multipole expansion :   0.218167E-03
  | Average real-space part of the electrostatic potential :      0.01128327 eV

  Allocating        1.984 MB for KS_eigenvector_complex
  Available memory per node after allocate_matrices [GB]:     47.26
  Available memory per node after init_comm_sparse_local_matrix_scalapack [GB]:     47.26
  Integrating Hamiltonian matrix: batch-based integration.
  Time summed over all CPUs for integration: real work        1.484 s, elapsed        1.522 s
  Available memory per node after integrate hamiltonian matrix [GB]:     47.21
  Integrating overlap matrix.
  Time summed over all CPUs for integration: real work        0.607 s, elapsed        0.624 s
  Available memory per node after integrate ovlp matrix [GB]:     47.21
  Available memory per node after ASI_callbacks invoke [GB]:     47.21
  Available memory per node after save_overlap_scalapack [GB]:     47.21

  Updating Kohn-Sham eigenvalues and eigenvectors using ELSI and the (modified) LAPACK eigensolver.
  Singularity check in k-point 4, task 0 (analysis for other k-points/tasks may follow below):
  Overlap matrix is not singular
  | Lowest and highest eigenvalues :  0.5281E-03,  0.7208E+01
  Finished singularity check of overlap matrix
  | Time :     0.005 s
  Starting LAPACK eigensolver
  Finished Cholesky decomposition
  | Time :     0.000 s
  Finished transformation to standard eigenproblem
  | Time :     0.000 s
  Finished solving standard eigenproblem
  | Time :     0.000 s
  Finished back-transformation of eigenvectors
  | Time :     0.000 s

  Obtaining occupation numbers and electronic chemical potential using ELSI.
  | Note that, for insulating systems, the printed 'chemical potential' value is not uniquely defined.
  | It can be anywhere in the energy gap, as long as it correctly separates occupied and unoccupied states.
  | In systems with a gap, the physically relevant chemical potential is the VBM or HOMO.

  | Chemical potential (Fermi level):    -5.73168776 eV
  Available memory per node after advance_KS_solution [GB]:     47.21
  Writing Kohn-Sham eigenvalues.

  Spin-up eigenvalues:
  K-point:       1 at    0.000000    0.000000    0.000000 (in units of recip. lattice)

  State    Occupation    Eigenvalue [Ha]    Eigenvalue [eV]
      1       1.00000         -65.789494        -1790.22321
      2       1.00000         -65.789494        -1790.22321
      3       1.00000          -5.142681         -139.93946
      4       1.00000          -5.142391         -139.93159
      5       1.00000          -3.527751          -95.99500
      6       1.00000          -3.527751          -95.99500
      7       1.00000          -3.527751          -95.99500
      8       1.00000          -3.527116          -95.97770
      9       1.00000          -3.527116          -95.97770
     10       1.00000          -3.527116          -95.97770
     11       1.00000          -0.679713          -18.49592
     12       1.00000          -0.244100           -6.64229
     13       1.00000          -0.244100           -6.64229
     14       1.00000          -0.244100           -6.64229
     15       0.00000          -0.141541           -3.85152
     16       0.00000          -0.141541           -3.85152
     17       0.00000          -0.141541           -3.85152
     18       0.00000          -0.116382           -3.16691
     19       0.00000           0.053650            1.45990
     20       0.00000           0.053650            1.45990

  Spin-down eigenvalues:
  K-point:       1 at    0.000000    0.000000    0.000000 (in units of recip. lattice)

  State    Occupation    Eigenvalue [Ha]    Eigenvalue [eV]
      1       1.00000         -65.786765        -1790.14897
      2       1.00000         -65.786765        -1790.14897
      3       1.00000          -5.139139         -139.84308
      4       1.00000          -5.138857         -139.83542
      5       1.00000          -3.523273          -95.87315
      6       1.00000          -3.523273          -95.87315
      7       1.00000          -3.523273          -95.87315
      8       1.00000          -3.522658          -95.85639
      9       1.00000          -3.522658          -95.85639
     10       1.00000          -3.522658          -95.85639
     11       1.00000          -0.641080          -17.44466
     12       0.00000          -0.204561           -5.56640
     13       0.00000          -0.204561           -5.56640
     14       0.00000          -0.204561           -5.56640
     15       0.00000          -0.102770           -2.79652
     16       0.00000          -0.102770           -2.79652
     17       0.00000          -0.102770           -2.79652
     18       0.00000          -0.086528           -2.35456
     19       0.00000           0.094355            2.56754
     20       0.00000           0.094355            2.56754

  Current spin moment of the entire structure :
  | N = N_up - N_down (sum over all k points):         0.01731
  | S (sum over all k points)                :         0.00865

  What follows are estimated values for band gap, HOMO, LUMO, etc.
  | They are estimated on a discrete k-point grid and not necessarily exact.
  | For converged numbers, create a DOS and/or band structure plot on a denser k-grid.

  Highest occupied state (VBM) at     -5.73168776 eV (relative to internal zero)
  | Occupation number:      0.50000007
  | K-point:     149 at    0.375000    0.375000    0.000000 (in units of recip. lattice)
  | Spin channel:        1

  Lowest unoccupied state (CBM) at    -5.73168775 eV (relative to internal zero)
  | Occupation number:      0.49999986
  | K-point:      30 at    0.000000    0.625000    0.625000 (in units of recip. lattice)
  | Spin channel:        1

  ESTIMATED overall HOMO-LUMO gap:      0.00000000 eV between HOMO at k-point 149 and LUMO at k-point 30
  | This appears to be an indirect band gap.
  | Smallest direct gap :      0.97308278 eV for k_point 149 at    0.375000    0.375000    0.000000 (in units of recip. lattice)
  | Direct gap HOMO spin channel :     1
  | Direct gap LUMO spin channel :     1
  However, this system has fractional occupation numbers. Since we use a finite k-point grid,
  this material is metallic within the approximate finite broadening function (occupation_type)
  applied to determine the occupation numbers.
  Calculating total energy contributions from superposition of free atom densities.

  Total energy components:
  | Sum of eigenvalues            :        -329.27780772 Ha       -8960.10503327 eV
  | XC energy correction          :         -41.74456052 Ha       -1135.92728710 eV
  | XC potential correction       :          53.91303783 Ha        1467.04840205 eV
  | Free-atom electrostatic energy:        -263.59230454 Ha       -7172.71155008 eV
  | Hartree energy correction     :          -0.01979920 Ha          -0.53876376 eV
  | Entropy correction            :          -0.00000061 Ha          -0.00001653 eV
  | ---------------------------
  | Total energy                  :        -580.72143415 Ha      -15802.23423217 eV
  | Total energy, T -> 0          :        -580.72143476 Ha      -15802.23424870 eV  <-- do not rely on this value for anything but (periodic) metals
  | Electronic free energy        :        -580.72143537 Ha      -15802.23426523 eV

  Derived energy quantities:
  | Kinetic energy                :         582.36149528 Ha       15846.86256599 eV
  | Electrostatic energy          :       -1121.33836891 Ha      -30513.16951106 eV
  | Energy correction for multipole
  | error in Hartree potential    :           0.00037497 Ha           0.01020346 eV
  | Sum of eigenvalues per atom                           :       -4480.05251664 eV
  | Total energy (T->0) per atom                          :       -7901.11712435 eV  <-- do not rely on this value for anything but (periodic) metals
  | Electronic free energy per atom                       :       -7901.11713261 eV

  End scf initialization - timings             :  max(cpu_time)    wall_clock(cpu1)
  | Time for scf. initialization                :        1.040 s           1.046 s
  | Boundary condition initialization           :        0.102 s           0.103 s
  | Relaxation initialization                   :        0.001 s           0.000 s
  | Integration                                 :        0.538 s           0.540 s
  | Solution of K.-S. eqns.                     :        0.209 s           0.213 s
  | Grid partitioning                           :        0.045 s           0.045 s
  | Preloading free-atom quantities on grid     :        0.202 s           0.202 s
  | Free-atom superposition energy              :        0.044 s           0.044 s
  | Total energy evaluation                     :        0.000 s           0.000 s

  Partial memory accounting:
  | Current value for overall tracked memory usage:
  |   Minimum:        4.415 MB (on task 3)
  |   Maximum:        4.415 MB (on task 0)
  |   Average:        4.415 MB
  | Peak value for overall tracked memory usage:
  |   Minimum:       10.676 MB (on task 3 after allocating wave)
  |   Maximum:       11.086 MB (on task 0 after allocating wave)
  |   Average:       10.880 MB
  | Largest tracked array allocation so far:
  |   Minimum:        3.486 MB (hamiltonian_shell on task 3)
  |   Maximum:        3.781 MB (hamiltonian_shell on task 0)
  |   Average:        3.633 MB
  Note:  These values currently only include a subset of arrays which are explicitly tracked.
  The "true" memory usage will be greater.
------------------------------------------------------------
  Available memory after initialize_scf [GB]:     47.21
  Available memory after allocating mixing [GB]:     47.21
  Evaluating new KS density using the density matrix
  Evaluating density matrix
  Evaluating density matrix
  Time summed over all CPUs for getting density from density matrix: real work        2.687 s, elapsed        2.733 s
  Integration grid: deviation in total charge (<rho> - N_e) =   1.421085E-14
  | <rho_up-rho_dn> = N_up-N_dn =      0.0117; <|rho_up-rho_dn|> =      0.0444

  Time for density update prior                :  max(cpu_time)    wall_clock(cpu1)
  | self-consistency iterative process          :        0.724 s           0.727 s
  Available memory before start of SCF loop [GB]:     47.21

------------------------------------------------------------
          Begin self-consistency iteration #    1

  Date     :  20250218, Time     :  132637.786
------------------------------------------------------------
  Pulay mixing of updated and previous charge densities.
  Available memory per node after mixing [GB]:     47.21
  Renormalizing the density to the exact electron count on the 3D integration grid.
  | Formal number of electrons (from input files) :      28.0000000000
  | Integrated number of electrons on 3D grid     :      28.0000000000
  | Charge integration error                      :      -0.0000000000
  | Normalization factor for density and gradient :       1.0000000000

  Evaluating partitioned Hartree potential by multipole expansion.
  | Original multipole sum: apparent total charge =  -0.561888E-13
  | Sum of charges compensated after spline to logarithmic grids =  -0.752577E-05
  | Analytical far-field extrapolation by fixed multipoles:
  | Hartree multipole sum: apparent total charge =  -0.000000E+00
  Summing up the Hartree potential.
  Time summed over all CPUs for potential: real work        0.095 s, elapsed        0.140 s
  | RMS charge density error from multipole expansion :   0.804350E-03
  | Average real-space part of the electrostatic potential :      0.03330170 eV

  Integrating Hamiltonian matrix: batch-based integration.
  Time summed over all CPUs for integration: real work        1.486 s, elapsed        1.522 s

  Updating Kohn-Sham eigenvalues and eigenvectors using ELSI and the (modified) LAPACK eigensolver.
  Starting LAPACK eigensolver
  Finished Cholesky decomposition
  | Time :     0.000 s
  Finished transformation to standard eigenproblem
  | Time :     0.000 s
  Finished solving standard eigenproblem
  | Time :     0.000 s
  Finished back-transformation of eigenvectors
  | Time :     0.000 s

  Obtaining occupation numbers and electronic chemical potential using ELSI.
  | Note that, for insulating systems, the printed 'chemical potential' value is not uniquely defined.
  | It can be anywhere in the energy gap, as long as it correctly separates occupied and unoccupied states.
  | In systems with a gap, the physically relevant chemical potential is the VBM or HOMO.

  | Chemical potential (Fermi level):    -5.70039268 eV
  Writing Kohn-Sham eigenvalues.

  Spin-up eigenvalues:
  K-point:       1 at    0.000000    0.000000    0.000000 (in units of recip. lattice)

  State    Occupation    Eigenvalue [Ha]    Eigenvalue [eV]
      1       1.00000         -65.787064        -1790.15708
      2       1.00000         -65.787064        -1790.15708
      3       1.00000          -5.140801         -139.88830
      4       1.00000          -5.140512         -139.88044
      5       1.00000          -3.525795          -95.94176
      6       1.00000          -3.525795          -95.94176
      7       1.00000          -3.525795          -95.94176
      8       1.00000          -3.525160          -95.92447
      9       1.00000          -3.525160          -95.92447
     10       1.00000          -3.525160          -95.92447
     11       1.00000          -0.678023          -18.44995
     12       1.00000          -0.242011           -6.58547
     13       1.00000          -0.242011           -6.58547
     14       1.00000          -0.242011           -6.58547
     15       0.00000          -0.140128           -3.81307
     16       0.00000          -0.140128           -3.81307
     17       0.00000          -0.140128           -3.81307
     18       0.00000          -0.114479           -3.11514
     19       0.00000           0.055118            1.49985
     20       0.00000           0.055118            1.49985

  Spin-down eigenvalues:
  K-point:       1 at    0.000000    0.000000    0.000000 (in units of recip. lattice)

  State    Occupation    Eigenvalue [Ha]    Eigenvalue [eV]
      1       1.00000         -65.784481        -1790.08680
      2       1.00000         -65.784481        -1790.08680
      3       1.00000          -5.137449         -139.79709
      4       1.00000          -5.137167         -139.78942
      5       1.00000          -3.521555          -95.82638
      6       1.00000          -3.521555          -95.82638
      7       1.00000          -3.521555          -95.82638
      8       1.00000          -3.520938          -95.80960
      9       1.00000          -3.520938          -95.80960
     10       1.00000          -3.520938          -95.80960
     11       1.00000          -0.641398          -17.45331
     12       0.00000          -0.204792           -5.57267
     13       0.00000          -0.204792           -5.57267
     14       0.00000          -0.204792           -5.57267
     15       0.00000          -0.103195           -2.80807
     16       0.00000          -0.103195           -2.80807
     17       0.00000          -0.103195           -2.80807
     18       0.00000          -0.085988           -2.33984
     19       0.00000           0.093736            2.55069
     20       0.00000           0.093736            2.55069

  Current spin moment of the entire structure :
  | N = N_up - N_down (sum over all k points):         0.01731
  | S (sum over all k points)                :         0.00865

  What follows are estimated values for band gap, HOMO, LUMO, etc.
  | They are estimated on a discrete k-point grid and not necessarily exact.
  | For converged numbers, create a DOS and/or band structure plot on a denser k-grid.

  Highest occupied state (VBM) at     -5.70039268 eV (relative to internal zero)
  | Occupation number:      0.50000000
  | K-point:     133 at    0.375000    0.000000    0.375000 (in units of recip. lattice)
  | Spin channel:        1

  Lowest unoccupied state (CBM) at    -5.70039268 eV (relative to internal zero)
  | Occupation number:      0.50000000
  | K-point:      30 at    0.000000    0.625000    0.625000 (in units of recip. lattice)
  | Spin channel:        1

  ESTIMATED overall HOMO-LUMO gap:      0.00000000 eV between HOMO at k-point 133 and LUMO at k-point 30
  | This appears to be an indirect band gap.
  | Smallest direct gap :      0.97117203 eV for k_point 133 at    0.375000    0.000000    0.375000 (in units of recip. lattice)
  | Direct gap HOMO spin channel :     1
  | Direct gap LUMO spin channel :     1
  However, this system has fractional occupation numbers. Since we use a finite k-point grid,
  this material is metallic within the approximate finite broadening function (occupation_type)
  applied to determine the occupation numbers.

  Total energy components:
  | Sum of eigenvalues            :        -329.23332443 Ha       -8958.89458116 eV
  | XC energy correction          :         -41.74581729 Ha       -1135.96148554 eV
  | XC potential correction       :          53.91447662 Ha        1467.08755344 eV
  | Free-atom electrostatic energy:        -263.59230454 Ha       -7172.71155008 eV
  | Hartree energy correction     :          -0.06589782 Ha          -1.79317082 eV
  | Entropy correction            :          -0.00000061 Ha          -0.00001653 eV
  | ---------------------------
  | Total energy                  :        -580.72286745 Ha      -15802.27323415 eV
  | Total energy, T -> 0          :        -580.72286806 Ha      -15802.27325068 eV  <-- do not rely on this value for anything but (periodic) metals
  | Electronic free energy        :        -580.72286867 Ha      -15802.27326721 eV

  Derived energy quantities:
  | Kinetic energy                :         582.36960018 Ha       15847.08311171 eV
  | Electrostatic energy          :       -1121.34665035 Ha      -30513.39486033 eV
  | Energy correction for multipole
  | error in Hartree potential    :           0.00120717 Ha           0.03284865 eV
  | Sum of eigenvalues per atom                           :       -4479.44729058 eV
  | Total energy (T->0) per atom                          :       -7901.13662534 eV  <-- do not rely on this value for anything but (periodic) metals
  | Electronic free energy per atom                       :       -7901.13663361 eV
  Evaluating new KS density using the density matrix
  Evaluating density matrix
  Evaluating density matrix
  Time summed over all CPUs for getting density from density matrix: real work        2.692 s, elapsed        2.762 s
  Integration grid: deviation in total charge (<rho> - N_e) =   7.105427E-14
  | <rho_up-rho_dn> = N_up-N_dn =      0.0117; <|rho_up-rho_dn|> =      0.0430

  Self-consistency convergence accuracy:
  | Change of charge/spin density :  0.1108E+00  0.1410E+00
  | Change of unmixed KS charge/spin density :  0.3262E+02  0.4306E-02
  | Change of sum of eigenvalues  :  0.1210E+01 eV
  | Change of total energy        : -0.3900E-01 eV


------------------------------------------------------------
  End self-consistency iteration #     1       :  max(cpu_time)    wall_clock(cpu1)
  | Time for this iteration                     :        1.441 s           1.448 s
  | Charge density update                       :        0.731 s           0.735 s
  | Density mixing                              :        0.001 s           0.001 s
  | Hartree multipole update                    :        0.001 s           0.001 s
  | Hartree multipole summation                 :        0.142 s           0.142 s
  | Integration                                 :        0.381 s           0.382 s
  | Solution of K.-S. eqns.                     :        0.185 s           0.186 s
  | Total energy evaluation                     :        0.000 s           0.000 s

  Partial memory accounting:
  | Current value for overall tracked memory usage:
  |   Minimum:        7.482 MB (on task 0)
  |   Maximum:        7.572 MB (on task 2)
  |   Average:        7.536 MB
  | Peak value for overall tracked memory usage:
  |   Minimum:       14.396 MB (on task 3 after allocating KS_scaled_cmplx)
  |   Maximum:       14.764 MB (on task 0 after allocating KS_scaled_cmplx)
  |   Average:       14.602 MB
  | Largest tracked array allocation so far:
  |   Minimum:        3.486 MB (hamiltonian_shell on task 3)
  |   Maximum:        3.781 MB (hamiltonian_shell on task 0)
  |   Average:        3.633 MB
  Note:  These values currently only include a subset of arrays which are explicitly tracked.
  The "true" memory usage will be greater.
------------------------------------------------------------

------------------------------------------------------------
          Begin self-consistency iteration #    2

  Date     :  20250218, Time     :  132639.234
------------------------------------------------------------
  Pulay mixing of updated and previous charge densities.
  Available memory per node after mixing [GB]:     47.20
  Renormalizing the density to the exact electron count on the 3D integration grid.
  | Formal number of electrons (from input files) :      28.0000000000
  | Integrated number of electrons on 3D grid     :      28.0000000000
  | Charge integration error                      :       0.0000000000
  | Normalization factor for density and gradient :       1.0000000000

  Evaluating partitioned Hartree potential by multipole expansion.
  | Original multipole sum: apparent total charge =  -0.566786E-13
  | Sum of charges compensated after spline to logarithmic grids =  -0.933891E-04
  | Analytical far-field extrapolation by fixed multipoles:
  | Hartree multipole sum: apparent total charge =  -0.000000E+00
  Summing up the Hartree potential.
  Time summed over all CPUs for potential: real work        0.096 s, elapsed        0.098 s
  | RMS charge density error from multipole expansion :   0.117078E-01
  | Average real-space part of the electrostatic potential :      0.42120849 eV

  Integrating Hamiltonian matrix: batch-based integration.
  Time summed over all CPUs for integration: real work        1.490 s, elapsed        1.524 s

  Updating Kohn-Sham eigenvalues and eigenvectors using ELSI and the (modified) LAPACK eigensolver.
  Starting LAPACK eigensolver
  Finished Cholesky decomposition
  | Time :     0.000 s
  Finished transformation to standard eigenproblem
  | Time :     0.000 s
  Finished solving standard eigenproblem
  | Time :     0.001 s
  Finished back-transformation of eigenvectors
  | Time :     0.000 s

  Obtaining occupation numbers and electronic chemical potential using ELSI.
  | Note that, for insulating systems, the printed 'chemical potential' value is not uniquely defined.
  | It can be anywhere in the energy gap, as long as it correctly separates occupied and unoccupied states.
  | In systems with a gap, the physically relevant chemical potential is the VBM or HOMO.

  | Chemical potential (Fermi level):    -5.25252816 eV
  Current spin moment of the entire structure :
  | N = N_up - N_down (sum over all k points):         0.00000
  | S (sum over all k points)                :         0.00000

  What follows are estimated values for band gap, HOMO, LUMO, etc.
  | They are estimated on a discrete k-point grid and not necessarily exact.
  | For converged numbers, create a DOS and/or band structure plot on a denser k-grid.

  Highest occupied state (VBM) at     -5.51324683 eV (relative to internal zero)
  | Occupation number:      1.00000000
  | K-point:       1 at    0.000000    0.000000    0.000000 (in units of recip. lattice)
  | Spin channel:        2

  Lowest unoccupied state (CBM) at    -5.00336172 eV (relative to internal zero)
  | Occupation number:      0.00000000
  | K-point:      30 at    0.000000    0.625000    0.625000 (in units of recip. lattice)
  | Spin channel:        1

  ESTIMATED overall HOMO-LUMO gap:      0.50988511 eV between HOMO at k-point 1 and LUMO at k-point 30
  | This appears to be an indirect band gap.
  | Smallest direct gap :      2.46378426 eV for k_point 1 at    0.000000    0.000000    0.000000 (in units of recip. lattice)
  | Direct gap HOMO spin channel :     2
  | Direct gap LUMO spin channel :     1
  The gap value is above 0.2 eV. Unless you are using a very sparse k-point grid,
  this system is most likely an insulator or a semiconductor.

  Checking to see if s.c.f. parameters should be adjusted.
  The system likely has a gap. Increased the default Pulay mixing parameter (charge_mix_param). Value:   0.200000 .
  Kept the default occupation width. Value:   0.010000 eV.

  Total energy components:
  | Sum of eigenvalues            :        -328.43575694 Ha       -8937.19166566 eV
  | XC energy correction          :         -41.79882112 Ha       -1137.40379313 eV
  | XC potential correction       :          53.98005036 Ha        1468.87190581 eV
  | Free-atom electrostatic energy:        -263.59230454 Ha       -7172.71155008 eV
  | Hartree energy correction     :          -0.89025552 Ha         -24.22508521 eV
  | Entropy correction            :          -0.00000000 Ha          -0.00000000 eV
  | ---------------------------
  | Total energy                  :        -580.73708775 Ha      -15802.66018828 eV
  | Total energy, T -> 0          :        -580.73708775 Ha      -15802.66018828 eV  <-- do not rely on this value for anything but (periodic) metals
  | Electronic free energy        :        -580.73708775 Ha      -15802.66018828 eV

  Derived energy quantities:
  | Kinetic energy                :         582.51859141 Ha       15851.13736926 eV
  | Electrostatic energy          :       -1121.45685804 Ha      -30516.39376441 eV
  | Energy correction for multipole
  | error in Hartree potential    :           0.01610781 Ha           0.43831588 eV
  | Sum of eigenvalues per atom                           :       -4468.59583283 eV
  | Total energy (T->0) per atom                          :       -7901.33009414 eV  <-- do not rely on this value for anything but (periodic) metals
  | Electronic free energy per atom                       :       -7901.33009414 eV
  Evaluating new KS density using the density matrix
  Evaluating density matrix
  Evaluating density matrix
  Time summed over all CPUs for getting density from density matrix: real work        2.685 s, elapsed        2.735 s
  Integration grid: deviation in total charge (<rho> - N_e) =  -2.131628E-14
  | <rho_up-rho_dn> = N_up-N_dn =     -0.0000; <|rho_up-rho_dn|> =      0.0102

  Self-consistency convergence accuracy:
  | Change of charge/spin density :  0.1047E+00  0.1340E+00
  | Change of unmixed KS charge/spin density :  0.1083E-02  0.3597E-03
  | Change of sum of eigenvalues  :  0.2170E+02 eV
  | Change of total energy        : -0.3870E+00 eV


------------------------------------------------------------
  End self-consistency iteration #     2       :  max(cpu_time)    wall_clock(cpu1)
  | Time for this iteration                     :        1.445 s           1.451 s
  | Charge density update                       :        0.724 s           0.727 s
  | Density mixing                              :        0.001 s           0.001 s
  | Hartree multipole update                    :        0.001 s           0.001 s
  | Hartree multipole summation                 :        0.100 s           0.100 s
  | Integration                                 :        0.381 s           0.383 s
  | Solution of K.-S. eqns.                     :        0.238 s           0.239 s
  | Total energy evaluation                     :        0.000 s           0.000 s

  Partial memory accounting:
  | Current value for overall tracked memory usage:
  |   Minimum:        7.483 MB (on task 0)
  |   Maximum:        7.573 MB (on task 2)
  |   Average:        7.537 MB
  | Peak value for overall tracked memory usage:
  |   Minimum:       14.397 MB (on task 3 after allocating KS_scaled_cmplx)
  |   Maximum:       14.766 MB (on task 0 after allocating KS_scaled_cmplx)
  |   Average:       14.603 MB
  | Largest tracked array allocation so far:
  |   Minimum:        3.486 MB (hamiltonian_shell on task 3)
  |   Maximum:        3.781 MB (hamiltonian_shell on task 0)
  |   Average:        3.633 MB
  Note:  These values currently only include a subset of arrays which are explicitly tracked.
  The "true" memory usage will be greater.
------------------------------------------------------------

------------------------------------------------------------
          Begin self-consistency iteration #    3

  Date     :  20250218, Time     :  132640.685
------------------------------------------------------------
  Pulay mixing of updated and previous charge densities.
  Available memory per node after mixing [GB]:     47.22
  Renormalizing the density to the exact electron count on the 3D integration grid.
  | Formal number of electrons (from input files) :      28.0000000000
  | Integrated number of electrons on 3D grid     :      28.0000000000
  | Charge integration error                      :      -0.0000000000
  | Normalization factor for density and gradient :       1.0000000000

  Evaluating partitioned Hartree potential by multipole expansion.
  | Original multipole sum: apparent total charge =  -0.431163E-13
  | Sum of charges compensated after spline to logarithmic grids =  -0.914563E-04
  | Analytical far-field extrapolation by fixed multipoles:
  | Hartree multipole sum: apparent total charge =  -0.000000E+00
  Summing up the Hartree potential.
  Time summed over all CPUs for potential: real work        0.096 s, elapsed        0.098 s
  | RMS charge density error from multipole expansion :   0.115488E-01
  | Average real-space part of the electrostatic potential :      0.38633808 eV

  Integrating Hamiltonian matrix: batch-based integration.
  Time summed over all CPUs for integration: real work        1.492 s, elapsed        1.554 s

  Updating Kohn-Sham eigenvalues and eigenvectors using ELSI and the (modified) LAPACK eigensolver.
  Starting LAPACK eigensolver
  Finished Cholesky decomposition
  | Time :     0.000 s
  Finished transformation to standard eigenproblem
  | Time :     0.000 s
  Finished solving standard eigenproblem
  | Time :     0.000 s
  Finished back-transformation of eigenvectors
  | Time :     0.000 s

  Obtaining occupation numbers and electronic chemical potential using ELSI.
  | Note that, for insulating systems, the printed 'chemical potential' value is not uniquely defined.
  | It can be anywhere in the energy gap, as long as it correctly separates occupied and unoccupied states.
  | In systems with a gap, the physically relevant chemical potential is the VBM or HOMO.

  | Chemical potential (Fermi level):    -5.29129235 eV
  Current spin moment of the entire structure :
  | N = N_up - N_down (sum over all k points):         0.00000
  | S (sum over all k points)                :         0.00000

  What follows are estimated values for band gap, HOMO, LUMO, etc.
  | They are estimated on a discrete k-point grid and not necessarily exact.
  | For converged numbers, create a DOS and/or band structure plot on a denser k-grid.

  Highest occupied state (VBM) at     -5.55519677 eV (relative to internal zero)
  | Occupation number:      1.00000000
  | K-point:       1 at    0.000000    0.000000    0.000000 (in units of recip. lattice)
  | Spin channel:        2

  Lowest unoccupied state (CBM) at    -5.01062472 eV (relative to internal zero)
  | Occupation number:      0.00000000
  | K-point:      30 at    0.000000    0.625000    0.625000 (in units of recip. lattice)
  | Spin channel:        1

  ESTIMATED overall HOMO-LUMO gap:      0.54457205 eV between HOMO at k-point 1 and LUMO at k-point 30
  | This appears to be an indirect band gap.
  | Smallest direct gap :      2.48956406 eV for k_point 1 at    0.000000    0.000000    0.000000 (in units of recip. lattice)
  | Direct gap HOMO spin channel :     2
  | Direct gap LUMO spin channel :     1
  The gap value is above 0.2 eV. Unless you are using a very sparse k-point grid,
  this system is most likely an insulator or a semiconductor.

  Total energy components:
  | Sum of eigenvalues            :        -328.54079106 Ha       -8940.04978934 eV
  | XC energy correction          :         -41.79069216 Ha       -1137.18259301 eV
  | XC potential correction       :          53.96945946 Ha        1468.58371263 eV
  | Free-atom electrostatic energy:        -263.59230454 Ha       -7172.71155008 eV
  | Hartree energy correction     :          -0.78253449 Ha         -21.29384697 eV
  | Entropy correction            :          -0.00000000 Ha          -0.00000000 eV
  | ---------------------------
  | Total energy                  :        -580.73686279 Ha      -15802.65406678 eV
  | Total energy, T -> 0          :        -580.73686279 Ha      -15802.65406678 eV  <-- do not rely on this value for anything but (periodic) metals
  | Electronic free energy        :        -580.73686279 Ha      -15802.65406678 eV

  Derived energy quantities:
  | Kinetic energy                :         582.44503597 Ha       15849.13582387 eV
  | Electrostatic energy          :       -1121.39120660 Ha      -30514.60729764 eV
  | Energy correction for multipole
  | error in Hartree potential    :           0.01561848 Ha           0.42500041 eV
  | Sum of eigenvalues per atom                           :       -4470.02489467 eV
  | Total energy (T->0) per atom                          :       -7901.32703339 eV  <-- do not rely on this value for anything but (periodic) metals
  | Electronic free energy per atom                       :       -7901.32703339 eV
  Evaluating new KS density using the density matrix
  Evaluating density matrix
  Evaluating density matrix
  Time summed over all CPUs for getting density from density matrix: real work        2.730 s, elapsed        2.937 s
  Integration grid: deviation in total charge (<rho> - N_e) =  -7.105427E-15
  | <rho_up-rho_dn> = N_up-N_dn =      0.0000; <|rho_up-rho_dn|> =      0.0063

  Self-consistency convergence accuracy:
  | Change of charge/spin density :  0.1585E-01  0.7243E-02
  | Change of unmixed KS charge/spin density :  0.1836E-01  0.3433E-02
  | Change of sum of eigenvalues  : -0.2858E+01 eV
  | Change of total energy        :  0.6121E-02 eV


------------------------------------------------------------
  End self-consistency iteration #     3       :  max(cpu_time)    wall_clock(cpu1)
  | Time for this iteration                     :        1.448 s           1.454 s
  | Charge density update                       :        0.774 s           0.778 s
  | Density mixing                              :        0.001 s           0.002 s
  | Hartree multipole update                    :        0.001 s           0.001 s
  | Hartree multipole summation                 :        0.100 s           0.100 s
  | Integration                                 :        0.389 s           0.390 s
  | Solution of K.-S. eqns.                     :        0.182 s           0.182 s
  | Total energy evaluation                     :        0.000 s           0.000 s

  Partial memory accounting:
  | Current value for overall tracked memory usage:
  |   Minimum:        7.483 MB (on task 0)
  |   Maximum:        7.573 MB (on task 2)
  |   Average:        7.537 MB
  | Peak value for overall tracked memory usage:
  |   Minimum:       14.397 MB (on task 3 after allocating KS_scaled_cmplx)
  |   Maximum:       14.766 MB (on task 0 after allocating KS_scaled_cmplx)
  |   Average:       14.604 MB
  | Largest tracked array allocation so far:
  |   Minimum:        3.486 MB (hamiltonian_shell on task 3)
  |   Maximum:        3.781 MB (hamiltonian_shell on task 0)
  |   Average:        3.633 MB
  Note:  These values currently only include a subset of arrays which are explicitly tracked.
  The "true" memory usage will be greater.
------------------------------------------------------------

------------------------------------------------------------
          Begin self-consistency iteration #    4

  Date     :  20250218, Time     :  132642.139
------------------------------------------------------------
  Pulay mixing of updated and previous charge densities.
  Available memory per node after mixing [GB]:     47.23
  Renormalizing the density to the exact electron count on the 3D integration grid.
  | Formal number of electrons (from input files) :      28.0000000000
  | Integrated number of electrons on 3D grid     :      28.0000000000
  | Charge integration error                      :      -0.0000000000
  | Normalization factor for density and gradient :       1.0000000000

  Evaluating partitioned Hartree potential by multipole expansion.
  | Original multipole sum: apparent total charge =  -0.869788E-13
  | Sum of charges compensated after spline to logarithmic grids =  -0.894785E-04
  | Analytical far-field extrapolation by fixed multipoles:
  | Hartree multipole sum: apparent total charge =  -0.000000E+00
  Summing up the Hartree potential.
  Time summed over all CPUs for potential: real work        0.096 s, elapsed        0.098 s
  | RMS charge density error from multipole expansion :   0.115029E-01
  | Average real-space part of the electrostatic potential :      0.32106436 eV

  Integrating Hamiltonian matrix: batch-based integration.
  Time summed over all CPUs for integration: real work        1.485 s, elapsed        1.522 s

  Updating Kohn-Sham eigenvalues and eigenvectors using ELSI and the (modified) LAPACK eigensolver.
  Starting LAPACK eigensolver
  Finished Cholesky decomposition
  | Time :     0.000 s
  Finished transformation to standard eigenproblem
  | Time :     0.000 s
  Finished solving standard eigenproblem
  | Time :     0.001 s
  Finished back-transformation of eigenvectors
  | Time :     0.000 s

  Obtaining occupation numbers and electronic chemical potential using ELSI.
  | Note that, for insulating systems, the printed 'chemical potential' value is not uniquely defined.
  | It can be anywhere in the energy gap, as long as it correctly separates occupied and unoccupied states.
  | In systems with a gap, the physically relevant chemical potential is the VBM or HOMO.

  | Chemical potential (Fermi level):    -5.36701510 eV
  Current spin moment of the entire structure :
  | N = N_up - N_down (sum over all k points):         0.00000
  | S (sum over all k points)                :         0.00000

  What follows are estimated values for band gap, HOMO, LUMO, etc.
  | They are estimated on a discrete k-point grid and not necessarily exact.
  | For converged numbers, create a DOS and/or band structure plot on a denser k-grid.

  Highest occupied state (VBM) at     -5.64084810 eV (relative to internal zero)
  | Occupation number:      1.00000000
  | K-point:       1 at    0.000000    0.000000    0.000000 (in units of recip. lattice)
  | Spin channel:        2

  Lowest unoccupied state (CBM) at    -5.01702794 eV (relative to internal zero)
  | Occupation number:      0.00000000
  | K-point:      30 at    0.000000    0.625000    0.625000 (in units of recip. lattice)
  | Spin channel:        2

  ESTIMATED overall HOMO-LUMO gap:      0.62382016 eV between HOMO at k-point 1 and LUMO at k-point 30
  | This appears to be an indirect band gap.
  | Smallest direct gap :      2.54996261 eV for k_point 1 at    0.000000    0.000000    0.000000 (in units of recip. lattice)
  | Direct gap HOMO spin channel :     2
  | Direct gap LUMO spin channel :     2
  The gap value is above 0.2 eV. Unless you are using a very sparse k-point grid,
  this system is most likely an insulator or a semiconductor.

  Total energy components:
  | Sum of eigenvalues            :        -328.74180972 Ha       -8945.51978550 eV
  | XC energy correction          :         -41.77610971 Ha       -1136.78578413 eV
  | XC potential correction       :          53.95036967 Ha        1468.06425295 eV
  | Free-atom electrostatic energy:        -263.59230454 Ha       -7172.71155008 eV
  | Hartree energy correction     :          -0.57676911 Ha         -15.69468606 eV
  | Entropy correction            :          -0.00000000 Ha          -0.00000000 eV
  | ---------------------------
  | Total energy                  :        -580.73662341 Ha      -15802.64755282 eV
  | Total energy, T -> 0          :        -580.73662341 Ha      -15802.64755282 eV  <-- do not rely on this value for anything but (periodic) metals
  | Electronic free energy        :        -580.73662341 Ha      -15802.64755282 eV

  Derived energy quantities:
  | Kinetic energy                :         582.29827379 Ha       15845.14222190 eV
  | Electrostatic energy          :       -1121.25878750 Ha      -30511.00399059 eV
  | Energy correction for multipole
  | error in Hartree potential    :           0.01494370 Ha           0.40663881 eV
  | Sum of eigenvalues per atom                           :       -4472.75989275 eV
  | Total energy (T->0) per atom                          :       -7901.32377641 eV  <-- do not rely on this value for anything but (periodic) metals
  | Electronic free energy per atom                       :       -7901.32377641 eV
  Evaluating new KS density using the density matrix
  Evaluating density matrix
  Evaluating density matrix
  Time summed over all CPUs for getting density from density matrix: real work        2.678 s, elapsed        2.725 s
  Integration grid: deviation in total charge (<rho> - N_e) =   0.000000E+00
  | <rho_up-rho_dn> = N_up-N_dn =      0.0000; <|rho_up-rho_dn|> =      0.0067

  Self-consistency convergence accuracy:
  | Change of charge/spin density :  0.1055E-01  0.6132E-02
  | Change of unmixed KS charge/spin density :  0.1637E-02  0.3585E-03
  | Change of sum of eigenvalues  : -0.5470E+01 eV
  | Change of total energy        :  0.6514E-02 eV


------------------------------------------------------------
  End self-consistency iteration #     4       :  max(cpu_time)    wall_clock(cpu1)
  | Time for this iteration                     :        1.397 s           1.403 s
  | Charge density update                       :        0.731 s           0.734 s
  | Density mixing                              :        0.001 s           0.001 s
  | Hartree multipole update                    :        0.001 s           0.001 s
  | Hartree multipole summation                 :        0.100 s           0.101 s
  | Integration                                 :        0.381 s           0.382 s
  | Solution of K.-S. eqns.                     :        0.182 s           0.183 s
  | Total energy evaluation                     :        0.000 s           0.001 s

  Partial memory accounting:
  | Current value for overall tracked memory usage:
  |   Minimum:        7.483 MB (on task 0)
  |   Maximum:        7.573 MB (on task 2)
  |   Average:        7.538 MB
  | Peak value for overall tracked memory usage:
  |   Minimum:       14.397 MB (on task 3 after allocating KS_scaled_cmplx)
  |   Maximum:       14.766 MB (on task 0 after allocating KS_scaled_cmplx)
  |   Average:       14.604 MB
  | Largest tracked array allocation so far:
  |   Minimum:        3.486 MB (hamiltonian_shell on task 3)
  |   Maximum:        3.781 MB (hamiltonian_shell on task 0)
  |   Average:        3.633 MB
  Note:  These values currently only include a subset of arrays which are explicitly tracked.
  The "true" memory usage will be greater.
------------------------------------------------------------

------------------------------------------------------------
          Begin self-consistency iteration #    5

  Date     :  20250218, Time     :  132643.542
------------------------------------------------------------
  Pulay mixing of updated and previous charge densities.
  Available memory per node after mixing [GB]:     47.24
  Renormalizing the density to the exact electron count on the 3D integration grid.
  | Formal number of electrons (from input files) :      28.0000000000
  | Integrated number of electrons on 3D grid     :      28.0000000000
  | Charge integration error                      :      -0.0000000000
  | Normalization factor for density and gradient :       1.0000000000

  Evaluating partitioned Hartree potential by multipole expansion.
  | Original multipole sum: apparent total charge =   0.174542E-13
  | Sum of charges compensated after spline to logarithmic grids =  -0.892847E-04
  | Analytical far-field extrapolation by fixed multipoles:
  | Hartree multipole sum: apparent total charge =  -0.000000E+00
  Summing up the Hartree potential.
  Time summed over all CPUs for potential: real work        0.096 s, elapsed        0.097 s
  | RMS charge density error from multipole expansion :   0.115137E-01
  | Average real-space part of the electrostatic potential :      0.31668607 eV

  Integrating Hamiltonian matrix: batch-based integration.
  Time summed over all CPUs for integration: real work        1.537 s, elapsed        1.739 s

  Updating Kohn-Sham eigenvalues and eigenvectors using ELSI and the (modified) LAPACK eigensolver.
  Starting LAPACK eigensolver
  Finished Cholesky decomposition
  | Time :     0.000 s
  Finished transformation to standard eigenproblem
  | Time :     0.000 s
  Finished solving standard eigenproblem
  | Time :     0.000 s
  Finished back-transformation of eigenvectors
  | Time :     0.000 s

  Obtaining occupation numbers and electronic chemical potential using ELSI.
  | Note that, for insulating systems, the printed 'chemical potential' value is not uniquely defined.
  | It can be anywhere in the energy gap, as long as it correctly separates occupied and unoccupied states.
  | In systems with a gap, the physically relevant chemical potential is the VBM or HOMO.

  | Chemical potential (Fermi level):    -5.37027422 eV
  Current spin moment of the entire structure :
[...]
    Multipole Hellmann-Feynman    :    -0.3718222890E+02   -0.3718223796E+02   -0.3718223795E+02    0.6463988913E-07   -0.4508911559E-06    0.5103349003E-06
    On-site Multipole corrections :    -0.2829845437E+00   -0.2829845439E+00   -0.2829845439E+00   -0.3963644575E-10    0.8309152469E-10   -0.8768355194E-10
    Strain deriv. of the orbitals :     0.5347196475E+02    0.5347217437E+02    0.5347217435E+02   -0.2608193837E-07    0.5432885975E-06   -0.6375505321E-06
  -----------------------------------------------------------------------------------------------------------------------------------------------------------
  Sum of all contributions        :    -0.1792393666E-01   -0.1792365365E-01   -0.1792365848E-01    0.5093890595E-07   -0.3067286178E-07    0.1725284112E-08

  +-------------------------------------------------------------------+
  |              Analytical stress tensor - Symmetrized               |
  |                  Cartesian components [eV/A**3]                   |
  +-------------------------------------------------------------------+
  |                x                y                z                |
  |                                                                   |
  |  x        -0.00043647       0.00000000      -0.00000000           |
  |  y         0.00000000      -0.00043646       0.00000000           |
  |  z        -0.00000000       0.00000000      -0.00043646           |
  |                                                                   |
  |  Pressure:       0.00043646   [eV/A**3]                           |
  |                                                                   |
  +-------------------------------------------------------------------+


  Self-consistency convergence accuracy:
  | Change of charge/spin density :  0.2478E-07  0.7976E-14
  | Change of unmixed KS charge/spin density :  0.7375E-07  0.7467E-14
  | Change of sum of eigenvalues  : -0.1307E-04 eV
  | Change of total energy        :  0.3743E-08 eV
  | Change of forces              :  0.1248E-07 eV/A

  Writing Kohn-Sham eigenvalues.

  Spin-up eigenvalues:
  K-point:       1 at    0.000000    0.000000    0.000000 (in units of recip. lattice)

  State    Occupation    Eigenvalue [Ha]    Eigenvalue [eV]
      1       1.00000         -65.762966        -1789.50134
      2       1.00000         -65.762966        -1789.50134
      3       1.00000          -5.121909         -139.37423
      4       1.00000          -5.121659         -139.36744
      5       1.00000          -3.505765          -95.39673
      6       1.00000          -3.505765          -95.39673
      7       1.00000          -3.505765          -95.39673
      8       1.00000          -3.505207          -95.38154
      9       1.00000          -3.505207          -95.38154
     10       1.00000          -3.505207          -95.38154
     11       1.00000          -0.640328          -17.42420
     12       1.00000          -0.206499           -5.61913
     13       1.00000          -0.206499           -5.61913
     14       1.00000          -0.206499           -5.61913
     15       0.00000          -0.112638           -3.06503
     16       0.00000          -0.112638           -3.06503
     17       0.00000          -0.112638           -3.06503
     18       0.00000          -0.092298           -2.51157
     19       0.00000           0.083106            2.26142
     20       0.00000           0.083106            2.26142

  Spin-down eigenvalues:
  K-point:       1 at    0.000000    0.000000    0.000000 (in units of recip. lattice)

  State    Occupation    Eigenvalue [Ha]    Eigenvalue [eV]
      1       1.00000         -65.762966        -1789.50134
      2       1.00000         -65.762966        -1789.50134
      3       1.00000          -5.121909         -139.37423
      4       1.00000          -5.121659         -139.36744
      5       1.00000          -3.505765          -95.39673
      6       1.00000          -3.505765          -95.39673
      7       1.00000          -3.505765          -95.39673
      8       1.00000          -3.505207          -95.38154
      9       1.00000          -3.505207          -95.38154
     10       1.00000          -3.505207          -95.38154
     11       1.00000          -0.640328          -17.42420
     12       1.00000          -0.206499           -5.61913
     13       1.00000          -0.206499           -5.61913
     14       1.00000          -0.206499           -5.61913
     15       0.00000          -0.112638           -3.06503
     16       0.00000          -0.112638           -3.06503
     17       0.00000          -0.112638           -3.06503
     18       0.00000          -0.092298           -2.51157
     19       0.00000           0.083106            2.26142
     20       0.00000           0.083106            2.26142

  Current spin moment of the entire structure :
  | N = N_up - N_down (sum over all k points):         0.00000
  | S (sum over all k points)                :         0.00000

  What follows are estimated values for band gap, HOMO, LUMO, etc.
  | They are estimated on a discrete k-point grid and not necessarily exact.
  | For converged numbers, create a DOS and/or band structure plot on a denser k-grid.

  Highest occupied state (VBM) at     -5.61913394 eV (relative to internal zero)
  | Occupation number:      1.00000000
  | K-point:       1 at    0.000000    0.000000    0.000000 (in units of recip. lattice)
  | Spin channel:        2

  Lowest unoccupied state (CBM) at    -4.93800009 eV (relative to internal zero)
  | Occupation number:      0.00000000
  | K-point:     149 at    0.375000    0.375000    0.000000 (in units of recip. lattice)
  | Spin channel:        2

  ESTIMATED overall HOMO-LUMO gap:      0.68113386 eV between HOMO at k-point 1 and LUMO at k-point 149
  | This appears to be an indirect band gap.
  | Smallest direct gap :      2.55410067 eV for k_point 1 at    0.000000    0.000000    0.000000 (in units of recip. lattice)
  | Direct gap HOMO spin channel :     2
  | Direct gap LUMO spin channel :     2
  The gap value is above 0.2 eV. Unless you are using a very sparse k-point grid,
  this system is most likely an insulator or a semiconductor.

  | Chemical Potential                          :    -5.05479813 eV
  | Note that, for insulating systems, the printed 'chemical potential' value is not uniquely defined.
  | It can be anywhere in the energy gap, as long as it correctly separates occupied and unoccupied states.
  | In systems with a gap, the physically relevant chemical potential is the VBM or HOMO.

  Self-consistency cycle converged.


------------------------------------------------------------
  End self-consistency iteration #     8       :  max(cpu_time)    wall_clock(cpu1)
  | Time for this iteration                     :       15.277 s          15.344 s
  | Charge density & force component update     :       13.110 s          13.171 s
  | Density mixing                              :        0.002 s           0.002 s
  | Hartree multipole update                    :        0.001 s           0.001 s
  | Hartree multipole summation                 :        0.884 s           0.886 s
  | Hartree pot. SCF incomplete forces          :        0.706 s           0.717 s
  | Integration                                 :        0.375 s           0.377 s
  | Solution of K.-S. eqns.                     :        0.188 s           0.188 s
  | Total energy evaluation                     :        0.000 s           0.000 s

  Partial memory accounting:
  | Current value for overall tracked memory usage:
  |   Minimum:        9.417 MB (on task 0)
  |   Maximum:        9.507 MB (on task 2)
  |   Average:        9.466 MB
  | Peak value for overall tracked memory usage:
  |   Minimum:       26.542 MB (on task 0 after allocating d_wave)
  |   Maximum:       27.088 MB (on task 1 after allocating d_wave)
  |   Average:       26.825 MB
  | Largest tracked array allocation so far:
  |   Minimum:        3.643 MB (density_matrix_con on task 3)
  |   Maximum:        3.792 MB (density_matrix_con on task 1)
  |   Average:        3.744 MB
  Note:  These values currently only include a subset of arrays which are explicitly tracked.
  The "true" memory usage will be greater.
------------------------------------------------------------
  Removing unitary transformations (pure translations, rotations) from forces on atoms.
  Atomic forces before filtering:
  | Net force on center of mass :  -0.286190E-08 -0.908019E-08  0.307090E-07 eV/A
  Atomic forces after filtering:
  | Net force on center of mass :   0.000000E+00 -0.106338E-22  0.106338E-22 eV/A

  Energy and forces in a compact form:
  | Total energy uncorrected      :         -0.158026542119608E+05 eV
  | Total energy corrected        :         -0.158026542119608E+05 eV  <-- do not rely on this value for anything but (periodic) metals
  | Electronic free energy        :         -0.158026542119608E+05 eV
  Total atomic forces (unitary forces cleaned) [eV/Ang]:
  |    1          0.100351490577996E-06         -0.851161757248983E-07          0.255702041999623E-07
  |    2         -0.100351490577996E-06          0.851161757248983E-07         -0.255702041999623E-07

  ------------------------------------ 
  Start decomposition of the XC Energy 
  ------------------------------------ 
  X and C from original XC functional choice 
  Hartree-Fock Energy :          0.000000000 Ha              0.000000000 eV
  X Energy            :        -40.668082985 Ha          -1106.634842992 eV
  C Energy            :         -1.092347189 Ha            -29.724279372 eV
  XC Energy w/o HF    :        -41.760430175 Ha          -1136.359122364 eV
  Total XC Energy     :        -41.760430175 Ha          -1136.359122364 eV
  ------------------------------------ 
  LDA X and C from self-consistent density 
  X Energy LDA        :        -37.613298837 Ha          -1023.509936954 eV
  C Energy LDA        :         -2.145185582 Ha            -58.373469683 eV
  ------------------------------------ 
  End decomposition of the XC Energy 
  ------------------------------------ 

------------------------------------------------------------
  Relaxation / MD: End force evaluation.       :  max(cpu_time)    wall_clock(cpu1)
  | Time for this force evaluation              :       27.776 s          27.913 s

------------------------------------------------------------
  Geometry optimization: Attempting to predict improved coordinates.

  +-------------------------------------------------------------------+
  | Generalized derivatives on lattice vectors [eV/A]                 |
  +-------------------------------------------------------------------+
  |lattice_vector       0.00327281      -0.00327276      -0.00327275  |
  |lattice_vector      -0.00327282       0.00327276      -0.00327276  |
  |lattice_vector      -0.00327279      -0.00327274       0.00327275  |
  +-------------------------------------------------------------------+
  | Forces on lattice vectors cleaned from atomic contributions [eV/A]|
  +-------------------------------------------------------------------+
  |lattice_vector      -0.00327281       0.00327276       0.00327275  |
  |lattice_vector       0.00327282      -0.00327276       0.00327276  |
  |lattice_vector       0.00327279       0.00327274      -0.00327275  |
  +-------------------------------------------------------------------+
  Removing unitary transformations (pure translations, rotations) from forces on atoms.
  Atomic forces before filtering:
  | Net force on center of mass :   0.000000E+00 -0.106338E-22  0.106338E-22 eV/A
  Atomic forces after filtering:
  | Net force on center of mass :   0.000000E+00 -0.106338E-22  0.000000E+00 eV/A
  Net remaining forces (excluding translations, rotations) in present geometry:
  || Forces on atoms   || =   0.100351E-06 eV/A.
  || Forces on lattice || =   0.327282E-02 eV/A^3.
  Maximum force component is  0.327282E-02 eV/A.
  Present geometry is converged.

------------------------------------------------------------
  Final atomic structure:
                         x [A]             y [A]             z [A]
  lattice_vector        -0.00000003        2.73831638        2.73831638
  lattice_vector         2.73831641        0.00000001        2.73831640
  lattice_vector         2.73831642        2.73831640        0.00000001

            atom        -0.00000001        0.00000000        0.00000000  Si
            atom         1.36915821        1.36915819        1.36915820  Si

  Fractional coordinates:
                         L1                L2                L3
       atom_frac         0.00000000       -0.00000000       -0.00000000  Si
       atom_frac         0.25000000        0.25000000        0.25000000  Si
------------------------------------------------------------

------------------------------------------------------------------------------
  Final output of selected total energy values:

  The following output summarizes some interesting total energy values
  at the end of a run (AFTER all relaxation, molecular dynamics, etc.).

  | Total energy of the DFT / Hartree-Fock s.c.f. calculation      :         -15802.654211961 eV
  | Final zero-broadening corrected energy (caution - metals only) :         -15802.654211961 eV
  | For reference only, the value of 1 Hartree used in FHI-aims is :             27.211384500 eV
  | For reference only, the overall average (free atom contribution
  | + realspace contribution) of the electrostatic potential after
  | s.c.f. convergence is                                          :            -12.507298636 eV

  Before relying on these values, please be sure to understand exactly which
  total energy value is referred to by a given number. Different objects may
  all carry the same name 'total energy'. Definitions:

  Total energy of the DFT / Hartree-Fock s.c.f. calculation:
  | Note that this energy does not include ANY quantities calculated after the
  | s.c.f. cycle, in particular not ANY RPA, MP2, etc. many-body perturbation terms.

  Final zero-broadening corrected energy:
  | For metallic systems only, a broadening of the occupation numbers at the Fermi
  | level can be extrapolated back to zero broadening by an electron-gas inspired
  | formula. For all systems that are not real metals, this value can be
  | meaningless and should be avoided.

------------------------------------------------------------------------------
  Methods described in the following list of references were used in this FHI-aims run.
  If you publish the results, please make sure to cite these reference if they apply.
  FHI-aims is an academic code, and for our developers (often, Ph.D. students
  and postdocs), scientific credit in the community is essential.
  Thank you for helping us!

  For any use of FHI-aims, please cite:

    Volker Blum, Ralf Gehrke, Felix Hanke, Paula Havu, Ville Havu,
    Xinguo Ren, Karsten Reuter, and Matthias Scheffler
    'Ab initio molecular simulations with numeric atom-centered orbitals'
    Computer Physics Communications 180, 2175-2196 (2009)
    http://doi.org/10.1016/j.cpc.2009.06.022


  For the analytical stress tensor used in your run, please cite:

    Franz Knuth, Christian Carbogno, Viktor Atalla, Volker Blum, Matthias Scheffler
    'All-electron formalism for total energy strain derivatives and
    stress tensor components for numeric atom-centered orbitals'
    Computer Physics Communications 190, 33-50 (2015).
    http://doi.org/10.1016/j.cpc.2015.01.003


  The provided symmetry information was generated with SPGlib:

    Atsushi Togo, Yusuke Seto, Dimitar Pashov
    SPGlib 1.7.3 obtained from http://spglib.sourceforge.net
    Licence: New BSD license
    Copyright (C) 2008 Atsushi Togo


  The ELSI infrastructure was used in your run to solve the Kohn-Sham electronic structure.
  Please check out https://wordpress.elsi-interchange.org to learn more.
  If scalability is important for your project, please acknowledge ELSI by citing:

    V. W-z. Yu, F. Corsetti, A. Garcia, W. P. Huhn, M. Jacquelin, W. Jia,
    B. Lange, L. Lin, J. Lu, W. Mi, A. Seifitokaldani, A. Vazquez-Mayagoitia,
    C. Yang, H. Yang, and V. Blum
    'ELSI: A unified software interface for Kohn-Sham electronic structure solvers'
    Computer Physics Communications 222, 267-285 (2018).
    http://doi.org/10.1016/j.cpc.2017.09.007


  For the real-space grid partitioning and parallelization used in this calculation, please cite:

    Ville Havu, Volker Blum, Paula Havu, and Matthias Scheffler,
    'Efficient O(N) integration for all-electron electronic structure calculation'
    'using numerically tabulated basis functions'
    Journal of Computational Physics 228, 8367-8379 (2009).
    http://doi.org/10.1016/j.jcp.2009.08.008

  Of course, there are many other important community references, e.g., those cited in the
  above references. Our list is limited to references that describe implementations in the
  FHI-aims code. The reason is purely practical (length of this list) - please credit others as well.

------------------------------------------------------------
          Leaving FHI-aims.
          Date     :  20250218, Time     :  132808.830

          Computational steps:
          | Number of self-consistency cycles          :           29
          | Number of SCF (re)initializations          :            3
          | Number of relaxation steps                 :            2

          Detailed time accounting                     :  max(cpu_time)    wall_clock(cpu1)
          | Total time                                  :       92.843 s          93.276 s
          | Preparation time                            :        0.267 s           0.320 s
          | Boundary condition initalization            :        0.314 s           0.314 s
          | Grid partitioning                           :        0.135 s           0.135 s
          | Preloading free-atom quantities on grid     :        0.442 s           0.442 s
          | Free-atom superposition energy              :        0.127 s           0.127 s
          | Total time for integrations                 :       12.151 s          12.198 s
          | Total time for solution of K.-S. equations  :        5.726 s           5.754 s
          | Total time for EV reorthonormalization      :        0.106 s           0.106 s
          | Total time for density & force components   :       61.405 s          61.688 s
          | Total time for mixing                       :        0.055 s           0.054 s
          | Total time for Hartree multipole update     :        0.033 s           0.035 s
          | Total time for Hartree multipole sum        :        7.640 s           7.662 s
          | Total time for total energy evaluation      :        0.009 s           0.009 s
          | Total time NSC force correction             :        4.253 s           4.395 s
          | Total time for scaled ZORA corrections      :        0.000 s           0.000 s

          Partial memory accounting:
          | Residual value for overall tracked memory usage across tasks:     0.000000 MB (should be 0.000000 MB)
          | Peak values for overall tracked memory usage:
          |   Minimum:       26.542 MB (on task 0 after allocating d_wave)
          |   Maximum:       27.088 MB (on task 1 after allocating d_wave)
          |   Average:       26.825 MB
          | Largest tracked array allocation:
          |   Minimum:        3.643 MB (density_matrix_con on task 3)
          |   Maximum:        3.792 MB (density_matrix_con on task 1)
          |   Average:        3.744 MB
          Note:  These values currently only include a subset of arrays which are explicitly tracked.
          The "true" memory usage will be greater.

          Have a nice day.
------------------------------------------------------------
